Title: CKT8
Date: 
Plotname: Transient analysis
Flags: real
No. Variables: 5
No. Points: 301     
Command: version 4.3.18
Variables:
 0 time S
 1 V(7) V
 2 V(18) V
 3 V(29) V
 4 V(41) V
Values:
 0	0.000000000000000e+00
	0.000000000000000e+00
	0.000000000000000e+00
	0.000000000000000e+00
	0.000000000000000e+00
 1	5.000000000000000e-11
	-6.364845451655560e-20
	1.675870747769692e-21
	2.719383536624686e-21
	6.301124113215669e-20
 2	1.000000000000000e-10
	-6.553674593001358e-21
	-1.959835601111736e-21
	-6.571850564432583e-22
	-7.413105958092880e-22
 3	1.500000000000000e-10
	-3.923238263943193e-20
	2.295198810716467e-20
	4.356354570531061e-21
	-2.401877589501157e-21
 4	2.000000000000000e-10
	6.026280832392708e-20
	-1.548664647553415e-20
	-2.164562199574713e-21
	-1.338143555595301e-20
 5	2.500000000000000e-10
	4.830580276665190e-20
	-2.084861586110892e-20
	2.103818505971494e-21
	2.296747622092517e-20
 6	3.000000000000000e-10
	5.304477366393321e-20
	5.872655761125623e-21
	6.266053349936940e-22
	-5.259407030483376e-23
 7	3.500000000000000e-10
	-6.448674562104080e-20
	4.543748406412921e-21
	1.173490373609890e-21
	6.240033406619807e-20
 8	4.000000000000000e-10
	4.524394957907280e-21
	1.416842849010014e-21
	1.208980774584296e-21
	8.981910400985130e-22
 9	4.499999999999999e-10
	-9.870898043667342e-21
	-8.631460281598020e-21
	3.761636945685534e-21
	5.781115065535545e-21
 10	4.999999999999999e-10
	-7.434452208870098e-20
	-2.050261314991532e-20
	8.072542176510946e-21
	-2.865659289135424e-21
 11	5.500000000000000e-10
	-4.064030424860301e-20
	2.182157483685008e-20
	-1.216781587070479e-20
	-1.573251706468785e-20
 12	6.000000000000000e-10
	3.021225724522420e-20
	-1.656596447744407e-20
	-6.865099222199658e-21
	-1.085186789715099e-22
 13	6.500000000000000e-10
	-1.531030163858478e-20
	1.226264519517403e-20
	-6.413812747318666e-22
	4.424094103650211e-20
 14	7.000000000000001e-10
	4.297748438785108e-21
	-3.332815758504864e-21
	-2.308378269062743e-22
	-1.880767451191809e-21
 15	7.500000000000001e-10
	7.575309072936129e-21
	-5.634889279904426e-21
	-3.403255110453947e-22
	2.742823544168716e-23
 16	8.000000000000001e-10
	-1.643620274719412e-20
	1.172718356767103e-20
	-1.093470174470350e-21
	-5.461127242450195e-21
 17	8.500000000000002e-10
	3.243281268047519e-20
	-1.967792498302758e-20
	2.047042963239345e-21
	-6.275512409765006e-21
 18	9.000000000000002e-10
	-3.354924826250480e-20
	2.299871885803261e-20
	-2.200914953558228e-21
	-1.643017444906983e-20
 19	9.500000000000002e-10
	-7.026064701426742e-20
	-1.638251162603940e-20
	1.688797658970630e-21
	2.953215610328484e-21
 20	1.000000000000000e-09
	-1.418910597484545e-20
	9.568578383903975e-21
	3.411624577534330e-21
	-9.961112070494355e-22
 21	1.050000000000000e-09
	1.321534328138615e-21
	-8.522489485032779e-22
	-1.286645613248198e-21
	-1.823045675384010e-22
 22	1.100000000000000e-09
	1.335812649774733e-20
	-6.278131989682848e-21
	1.206047691604272e-22
	-1.817860053803678e-22
 23	1.150000000000000e-09
	-5.531825658609307e-20
	1.617127942549979e-20
	3.926312821798974e-21
	-1.627989664826004e-21
 24	1.200000000000000e-09
	-6.281734311072167e-20
	-2.226406876433547e-20
	-4.433699286235493e-21
	-1.819058389266998e-22
 25	1.250000000000000e-09
	-2.124451550625503e-20
	2.063896151969457e-20
	4.700169872493656e-21
	-1.818396247936513e-22
 26	1.300000000000000e-09
	9.771626353233242e-21
	-1.343816089613914e-20
	1.436364209732559e-21
	-2.095091472925849e-21
 27	1.350000000000001e-09
	-3.500439523749371e-22
	6.456095980826105e-21
	5.590214648355735e-21
	1.354357341467829e-21
 28	1.400000000000001e-09
	-1.073037964401491e-22
	1.821246215081128e-21
	-7.484608795486501e-23
	9.807135282907609e-22
 29	1.450000000000001e-09
	6.047789820642879e-21
	-8.958425461056137e-21
	-6.894670047091623e-21
	-3.413748595861575e-22
 30	1.500000000000001e-09
	-2.525628681766640e-20
	2.090152626296749e-20
	4.924091735673557e-21
	-1.789448895959840e-22
 31	1.550000000000001e-09
	1.211793812430086e-20
	-2.482254610014794e-20
	3.571503647594747e-21
	-1.792466242859980e-22
 32	1.600000000000001e-09
	-2.977327270945113e-20
	1.786081695503676e-20
	1.429975694120556e-20
	1.289423410412100e-21
 33	1.650000000000001e-09
	1.974083852452332e-20
	-1.020857886247074e-20
	6.784108487824403e-21
	-1.796614013589064e-22
 34	1.700000000000001e-09
	-2.735458608146689e-21
	1.992983391745411e-21
	-1.302081930648808e-21
	-1.280369111839364e-21
 35	1.750000000000001e-09
	1.609923119904928e-21
	3.680232495133665e-21
	-2.954177137111214e-21
	1.297704340642611e-21
 36	1.800000000000001e-09
	-2.053135249765292e-20
	-7.931419305867663e-21
	3.762239349165326e-21
	-2.033720490453018e-21
 37	1.850000000000001e-09
	-2.595968764255861e-20
	1.722838992229333e-20
	8.719462832401645e-21
	2.051403908554493e-21
 38	1.900000000000001e-09
	-1.820111173813995e-20
	-2.360774614796719e-20
	-3.145487967322838e-21
	-1.799200761763479e-22
 39	1.950000000000001e-09
	2.120079732297647e-20
	1.530007369703853e-20
	5.448363849951676e-21
	-4.870261415834420e-21
 40	2.000000000000001e-09
	4.933588905047876e-20
	1.175667043606672e-20
	4.384792610872593e-20
	4.168272447705624e-20
 41	2.050000000000001e-09
	4.133951534155588e-22
	4.477912524320788e-21
	3.097433694967908e-23
	4.668552713522092e-21
 42	2.100000000000001e-09
	-5.114386523677944e-20
	3.821838510417138e-21
	1.788604502531039e-21
	-1.859227316480176e-21
 43	2.150000000000001e-09
	-1.228038029884640e-21
	-3.485155438661129e-22
	-1.674391676703182e-21
	-1.475338889794769e-21
 44	2.200000000000001e-09
	-6.042038780254350e-22
	2.304723953760518e-21
	2.995299166669370e-22
	2.827794578190801e-22
 45	2.250000000000001e-09
	-3.175595810949689e-21
	3.007354137082907e-21
	-4.533154681917680e-22
	1.575354838425453e-21
 46	2.300000000000001e-09
	-2.974239428788942e-21
	-3.662788823761930e-21
	-8.486006746448226e-21
	-3.272454786333594e-21
 47	2.350000000000001e-09
	-4.148689221535855e-21
	-5.862592045061692e-22
	-1.509609050257459e-20
	3.580736749001229e-21
 48	2.400000000000001e-09
	-1.105840626037212e-20
	-4.532926092518255e-21
	2.640987246415429e-22
	-1.029622631561104e-20
 49	2.450000000000001e-09
	-1.878820776360357e-23
	2.956951827767502e-21
	-2.691120799297251e-21
	-6.375363236057464e-21
 50	2.500000000000001e-09
	-2.762766054321438e-21
	1.814313081982137e-21
	5.712047888367704e-22
	8.022972894263406e-22
 51	2.550000000000001e-09
	-7.894896870459246e-22
	-3.192641552277811e-22
	1.324715832842370e-21
	-3.306338409726316e-22
 52	2.600000000000001e-09
	6.341775884763580e-22
	-4.271804517927307e-22
	-2.166804956799841e-21
	2.112382905487902e-21
 53	2.650000000000001e-09
	-9.627277090700956e-21
	1.179858856801378e-21
	8.795361930614216e-21
	-3.196876616141090e-21
 54	2.700000000000001e-09
	1.814288813853021e-20
	-2.721384240922136e-21
	2.509397708525382e-21
	1.812726649388415e-20
 55	2.750000000000001e-09
	-1.395993463762355e-21
	-4.249585080423125e-21
	-3.549954684726713e-21
	-1.546790438082720e-20
 56	2.800000000000001e-09
	-2.531462855162880e-21
	2.361907439304596e-22
	-5.359119214006840e-22
	8.534064877185779e-22
 57	2.850000000000002e-09
	-8.921793939070718e-22
	6.010346353183735e-22
	-3.088965152178373e-20
	-9.561746605108692e-22
 58	2.900000000000002e-09
	-9.669860319079326e-23
	-4.674276700899243e-22
	-1.240059303211742e-21
	1.151587316993951e-21
 59	2.950000000000002e-09
	-4.933061706944285e-22
	1.334699280171564e-21
	-4.994585377577655e-21
	-2.936451523133740e-22
 60	3.000000000000002e-09
	6.816890053271401e-22
	-1.507709848111599e-22
	-1.153930595831524e-21
	3.430330444693355e-21
 61	3.050000000000002e-09
	8.108570491659374e-22
	7.928295604915923e-23
	1.893960205139837e-22
	-2.377128232451602e-21
 62	3.100000000000002e-09
	-1.343203090309180e-21
	-4.730532781888736e-22
	9.574745528588867e-22
	1.443001201664050e-21
 63	3.150000000000002e-09
	8.023373627410809e-21
	-1.427406061822740e-21
	-1.527364301586482e-21
	2.195189172254859e-21
 64	3.200000000000002e-09
	6.779726645162416e-22
	3.746122552047275e-21
	2.030002778324344e-22
	-5.839227850138979e-21
 65	3.250000000000002e-09
	6.773438654341355e-22
	-5.420602152510605e-21
	5.126195294817148e-21
	7.070420967983123e-21
 66	3.300000000000002e-09
	7.217298630503515e-21
	3.844590120620147e-21
	-1.423117790809122e-20
	8.692788408470803e-21
 67	3.350000000000002e-09
	-9.441622903421354e-23
	-3.308587635682505e-21
	-5.236148740705688e-21
	8.489211489291108e-21
 68	3.400000000000002e-09
	2.266632910247055e-21
	1.258536617760401e-22
	-4.982867820037982e-22
	5.718367446710933e-20
 69	3.450000000000002e-09
	1.972590455951577e-22
	-4.736056068923588e-22
	-2.814072704810127e-21
	-3.357955769169322e-21
 70	3.500000000000002e-09
	3.236905853946698e-21
	-1.680800935051371e-21
	6.390522163094318e-22
	-1.355511077371605e-21
 71	3.550000000000002e-09
	2.756113172388955e-21
	-4.736001904382557e-22
	-2.018776596103106e-20
	6.313963957481527e-21
 72	3.600000000000002e-09
	5.568975822219954e-21
	-4.733899604869221e-22
	-2.147950489833615e-21
	-1.439532004044522e-21
 73	3.650000000000002e-09
	6.780444763937587e-22
	1.080538929470620e-21
	-3.921900751494809e-21
	5.977547148702897e-21
 74	3.700000000000002e-09
	-2.286583767061640e-22
	-1.328526574126711e-21
	2.618268852193422e-22
	-2.215184893124734e-21
 75	3.750000000000002e-09
	-6.779026188447026e-22
	-4.734144992234609e-22
	-1.305247364441041e-21
	2.970507907992490e-20
 76	3.800000000000002e-09
	1.426265603138864e-21
	2.327051672587582e-22
	7.956765292386547e-23
	-4.274777232029646e-21
 77	3.850000000000001e-09
	3.771857246238890e-21
	9.861698340003943e-22
	-2.628305976041712e-21
	5.010399491238551e-20
 78	3.900000000000001e-09
	6.777058516457629e-22
	1.888392327339236e-21
	4.721333013172354e-21
	-8.504955552669454e-22
 79	3.950000000000001e-09
	7.211875370946420e-21
	-2.459171120228751e-22
	-1.759888959901148e-21
	8.603906080966710e-21
 80	4.000000000000000e-09
	-5.708885890720783e-21
	-3.132491560466329e-21
	5.084844182232473e-21
	-6.904309090714175e-20
 81	4.050000000000000e-09
	1.339703502652439e-20
	4.346759257346876e-21
	2.980133909510724e-22
	5.878095484501623e-20
 82	4.099999999999999e-09
	-8.101947288329484e-21
	-4.739500146674108e-22
	5.283591441873918e-21
	-7.099594191165697e-21
 83	4.149999999999999e-09
	4.507569517772571e-21
	4.292281205173115e-22
	2.120332676523110e-21
	2.471942053211993e-21
 84	4.199999999999999e-09
	-1.526380665518107e-21
	-4.741324431999624e-22
	1.657272110023577e-21
	-3.694371342815366e-21
 85	4.249999999999998e-09
	-4.171453309915068e-21
	-4.739696189457050e-22
	6.775099278597732e-22
	-8.531280277483678e-22
 86	4.299999999999998e-09
	6.430894475766253e-21
	8.830122488492986e-22
	-2.273909226812390e-22
	-1.132993806211882e-20
 87	4.349999999999998e-09
	-1.295534147239105e-20
	-2.584922444532546e-21
	5.430163819691560e-21
	2.371689843878905e-20
 88	4.399999999999997e-09
	1.439885600539144e-20
	-4.742198585980956e-22
	-3.927614518207772e-21
	-1.302768224471719e-22
 89	4.449999999999997e-09
	-5.275520656260989e-21
	-4.742028865656798e-22
	-1.043566485650890e-21
	9.607435499968256e-21
 90	4.499999999999996e-09
	4.126390822912097e-21
	1.765602732164385e-22
	-2.528983434170973e-21
	-3.654366256336443e-21
 91	4.549999999999996e-09
	5.419567320220859e-23
	-1.780993872116020e-21
	-1.029928984883284e-23
	3.250962831440921e-20
 92	4.599999999999996e-09
	-2.074948169514116e-21
	-4.743177513593626e-22
	5.311536692426374e-21
	-5.276398191612032e-21
 93	4.649999999999995e-09
	9.207116692749180e-21
	1.135459814453807e-21
	-1.166997038756934e-20
	-9.461162636035890e-21
 94	4.699999999999995e-09
	-1.434964122522754e-20
	-2.837324311652816e-21
	5.612685133880408e-21
	1.653361541489349e-20
 95	4.749999999999995e-09
	-4.002717176770321e-21
	1.733802200096680e-21
	-1.311125275417415e-20
	9.548527691043748e-21
 96	4.799999999999994e-09
	5.562547400239478e-21
	2.037119139998080e-22
	2.457231449124340e-21
	2.264119240042066e-20
 97	4.849999999999994e-09
	6.797177827666240e-22
	-4.757726814673099e-22
	-1.174911956147758e-21
	-1.712813630118891e-21
 98	4.899999999999993e-09
	-4.494763902831424e-22
	-1.206884435557124e-22
	-7.954128448418286e-22
	-6.349426284498136e-21
 99	4.949999999999993e-09
	1.854491869760542e-21
	-1.584410761215496e-21
	-1.196313037675337e-21
	-3.105532506508018e-22
 100	4.999999999999993e-09
	-9.188523288467439e-21
	-2.662133754861343e-21
	2.127632403510028e-21
	8.792094837651563e-22
 101	5.049999999999992e-09
	6.806518942495995e-22
	-1.581677784598897e-21
	-8.676034883253984e-22
	2.377258258149331e-21
 102	5.099999999999992e-09
	4.115793382554141e-22
	-8.793423182583619e-22
	-2.484089189868287e-21
	1.915446425949674e-22
 103	5.149999999999992e-09
	5.926331370950055e-21
	4.778838172415763e-22
	1.533820630199035e-21
	5.767964544944465e-21
 104	5.199999999999991e-09
	-1.199209401746611e-20
	-2.185121482766254e-21
	8.516888798467337e-21
	1.550933345318986e-20
 105	5.249999999999991e-09
	1.633358574388481e-20
	2.033842470068637e-21
	-2.512999877854147e-21
	1.318240925099290e-20
 106	5.299999999999990e-09
	1.179610936079777e-20
	1.681515392580357e-21
	9.384083939567703e-21
	4.860938819561689e-21
 107	5.349999999999990e-09
	4.457530896225676e-21
	2.033984431564969e-21
	7.235407758163364e-22
	3.068978258387374e-21
 108	5.399999999999990e-09
	-5.897073318624984e-22
	6.281803509927014e-22
	-1.056168858702175e-21
	5.883368294375673e-20
 109	5.449999999999989e-09
	-2.810240146176494e-22
	-4.774418115783043e-22
	1.692255041578937e-21
	1.611152750508289e-21
 110	5.499999999999989e-09
	-1.289449187818729e-21
	7.296976002373473e-22
	4.607322110009418e-21
	-9.671792322935668e-21
 111	5.549999999999988e-09
	-1.688571030911394e-21
	-2.438434556930316e-21
	-1.244267586295248e-20
	1.935195234099627e-20
 112	5.599999999999988e-09
	-4.210335420715133e-21
	1.829963944991212e-21
	1.336617976027978e-21
	-3.659212904838740e-21
 113	5.649999999999988e-09
	1.820912655330164e-21
	8.272271015832738e-25
	-1.989926350473535e-21
	5.686847961455692e-22
 114	5.699999999999987e-09
	-1.016482543395699e-21
	1.178249646462451e-21
	5.397072722677976e-22
	-6.224802986730988e-21
 115	5.749999999999987e-09
	6.807287112040262e-22
	7.542900261922971e-22
	-1.966074921699607e-21
	-1.947595229704925e-22
 116	5.799999999999987e-09
	1.429288347272840e-21
	-1.379961424796526e-21
	7.644156042309379e-22
	5.106860109881537e-21
 117	5.849999999999986e-09
	-2.970372048080639e-21
	-2.463127765388985e-21
	-7.152995017637376e-22
	-6.757281091526860e-21
 118	5.899999999999986e-09
	3.025409932076035e-21
	-4.773294763023809e-22
	-4.489498015356086e-21
	2.235177367149967e-20
 119	5.949999999999985e-09
	2.616843824408308e-21
	-4.777180613179700e-22
	-1.380224702280897e-21
	-1.333180783913926e-20
 120	5.999999999999985e-09
	9.695314759462578e-21
	1.428933755215439e-21
	-1.157660286126260e-21
	1.582589288106730e-20
 121	6.049999999999985e-09
	-5.007755160573501e-21
	2.033555305317407e-21
	2.234428284340067e-21
	-3.828253859827721e-21
 122	6.099999999999984e-09
	-2.065635685000879e-21
	8.808510624518304e-22
	2.276464077496523e-21
	5.060041880971196e-22
 123	6.149999999999984e-09
	6.970541590612689e-21
	-4.773943362261416e-22
	-3.408059385663235e-21
	5.051613262011801e-22
 124	6.199999999999984e-09
	-1.020885590026803e-20
	-8.766667129155449e-22
	2.960095519362875e-21
	2.648556850402933e-21
 125	6.249999999999983e-09
	1.897274675403380e-20
	-2.943357122170704e-21
	-1.737886028277863e-20
	1.228161504018575e-20
 126	6.299999999999983e-09
	-1.115813211407795e-20
	1.325082415049882e-21
	2.690213694077769e-21
	5.763952679872392e-22
 127	6.349999999999982e-09
	6.575780361519241e-21
	2.532587247139043e-22
	-1.513159837859562e-21
	2.656688931409936e-21
 128	6.399999999999982e-09
	-2.374122922350649e-21
	9.256905130813699e-22
	5.461979161931664e-23
	4.748169623011345e-22
 129	6.449999999999982e-09
	-3.805481317012133e-21
	1.006689152122259e-21
	6.443060481323288e-23
	1.119549695333941e-21
 130	6.499999999999981e-09
	-8.996141117543642e-21
	-4.776899358618292e-22
	-9.562430816851112e-22
	-9.765594792792839e-21
 131	6.549999999999981e-09
	1.288408990776431e-20
	-7.507638500231371e-22
	9.952189646791883e-22
	5.367400684156293e-20
 132	6.599999999999981e-09
	-1.640969572572569e-20
	-2.885148902098301e-21
	-2.375197694112318e-21
	2.532284178829131e-20
 133	6.649999999999980e-09
	1.002655495987541e-20
	-4.780570982690393e-22
	-6.460809294654798e-22
	-1.698060681968388e-21
 134	6.699999999999980e-09
	6.152485759050537e-22
	1.175484558820236e-21
	2.783604621755225e-21
	5.481561923892398e-23
 135	6.749999999999979e-09
	-6.739520609920803e-22
	2.032848792958645e-21
	3.693805211822441e-22
	-2.202015478178522e-23
 136	6.799999999999979e-09
	-4.039819351278520e-21
	1.843185429815668e-21
	-7.735194395867330e-21
	4.505975729013210e-20
 137	6.849999999999979e-09
	4.778488687496317e-21
	-1.941885163822060e-21
	5.848369596516063e-21
	-4.705480803245434e-21
 138	6.899999999999978e-09
	7.729151432199374e-21
	1.739398461278207e-21
	-7.195312917999004e-22
	3.435799877113010e-21
 139	6.949999999999978e-09
	-1.018892966941075e-20
	-2.529171791202020e-21
	-4.348382761324344e-21
	2.077300175602277e-21
 140	6.999999999999977e-09
	-1.060051019571929e-20
	-1.174960866634530e-21
	-1.761524524485334e-22
	-1.488299470894236e-21
 141	7.049999999999977e-09
	2.846995984346353e-21
	6.033410393572989e-22
	-2.329681455959345e-21
	1.490507916040649e-21
 142	7.099999999999977e-09
	4.186422817843768e-21
	-6.665660953404436e-23
	4.029076023404179e-22
	-1.255598176422871e-21
 143	7.149999999999976e-09
	-2.088459324512971e-20
	-6.828693427635464e-22
	-4.012533837709865e-21
	4.614352095407030e-21
 144	7.199999999999976e-09
	2.796229653469373e-20
	-2.221572601185667e-21
	1.090638603268952e-20
	-8.534193191064146e-22
 145	7.249999999999976e-09
	-4.044021841260053e-20
	-5.200860673223216e-22
	-1.860876204745475e-21
	-2.617419838822133e-20
 146	7.299999999999975e-09
	-2.108735457683919e-20
	1.634764807874086e-21
	-6.920075418055504e-21
	-2.349662357036133e-21
 147	7.349999999999975e-09
	-1.967371552795063e-20
	-3.034016408860089e-21
	9.412120511986448e-22
	1.627866646610918e-21
 148	7.399999999999974e-09
	7.778598159730840e-21
	5.852689591236709e-22
	4.644268230261235e-23
	3.075549639460993e-21
 149	7.449999999999974e-09
	7.875710722306409e-21
	3.246624803918550e-23
	7.487125183555979e-21
	2.942627382607197e-21
 150	7.499999999999975e-09
	-2.464212257869361e-20
	1.884245736989511e-21
	-8.943072696773556e-21
	-1.789386533034317e-23
 151	7.549999999999975e-09
	3.335771591642480e-20
	-5.486921234804980e-22
	-6.440760051255448e-21
	1.237576206360724e-20
 152	7.599999999999975e-09
	-3.513219174069654e-20
	-5.486002540756351e-22
	8.467933767824653e-21
	3.644021827611394e-21
 153	7.649999999999976e-09
	2.658503432963389e-20
	-5.186438282897791e-21
	-4.835426287828336e-22
	5.239974851050709e-21
 154	7.699999999999976e-09
	-1.333733621913729e-20
	2.436137106775862e-22
	-2.145028181894802e-22
	1.019135017668308e-22
 155	7.749999999999977e-09
	5.030769861749465e-23
	6.481960259819066e-22
	-3.021123119117899e-21
	-2.365325593717554e-21
 156	7.799999999999977e-09
	1.176402693698117e-20
	-3.653120164802097e-22
	-2.394441917557577e-21
	2.513417487234622e-21
 157	7.849999999999978e-09
	-2.989939954399503e-20
	3.840847603307355e-21
	-3.756728082036148e-21
	5.504538784831722e-21
 158	7.899999999999978e-09
	5.672908774874999e-20
	-7.235445985849264e-21
	2.885534274844997e-21
	-1.445027382704907e-20
 159	7.949999999999979e-09
	-5.107096878796675e-21
	3.747166751293576e-21
	6.646434521872586e-22
	-1.184431015064850e-20
 160	7.999999999999979e-09
	-1.401871451474429e-19
	-1.042496210698630e-21
	-7.342914593749766e-20
	2.708367101432530e-21
 161	8.049999999999979e-09
	-2.475534429253217e-20
	-5.287921427640135e-22
	-5.599239686270810e-20
	7.678847076267423e-21
 162	8.099999999999980e-09
	-5.361661600111469e-20
	-6.782252385425587e-21
	1.070404071366084e-20
	-5.322291798712570e-21
 163	8.149999999999980e-09
	1.986270569915689e-20
	-1.514041242313920e-20
	4.326856407931115e-21
	-9.451029658501682e-21
 164	8.199999999999981e-09
	-5.635634123297665e-20
	4.162339777333692e-21
	2.044757965911821e-21
	-3.862909159637262e-21
 165	8.249999999999981e-09
	-1.366962194999768e-20
	-1.554993933429766e-21
	-3.934984377698175e-21
	-3.783273685921081e-22
 166	8.299999999999982e-09
	1.183484043556790e-20
	5.404024955752365e-21
	-4.679939881236173e-20
	-4.362312287405867e-21
 167	8.349999999999982e-09
	-5.445845955212128e-20
	-4.053511434576679e-22
	-6.477350052530103e-20
	2.345660939932190e-21
 168	8.399999999999983e-09
	-6.347526826410798e-21
	-2.763807069073173e-21
	5.333215739352062e-21
	1.107273966713784e-20
 169	8.449999999999983e-09
	-8.629115573953883e-21
	-6.056551304843115e-22
	-4.389502067500176e-20
	-1.450767196995913e-21
 170	8.499999999999983e-09
	5.914125991693918e-22
	-6.056296096402340e-22
	-2.242275408349467e-21
	7.264118980539881e-21
 171	8.549999999999984e-09
	4.517452455997400e-22
	-6.051613622745354e-22
	-3.387446364710288e-20
	2.038633424299005e-21
 172	8.599999999999984e-09
	-8.967248406879970e-22
	-6.052339608860659e-22
	1.000139745030067e-21
	-3.904837847151010e-21
 173	8.649999999999985e-09
	-1.773377070942427e-21
	1.455070891774238e-21
	-9.606310058898947e-21
	7.653200849841410e-21
 174	8.699999999999985e-09
	-1.695033329964069e-21
	-5.313456433295898e-22
	1.037605923593349e-21
	1.057645732076006e-21
 175	8.749999999999986e-09
	2.585977279380987e-21
	1.602891691340565e-21
	-2.248763583825202e-21
	-1.047726779824407e-21
 176	8.799999999999986e-09
	-1.052848368473942e-21
	-6.052387352451678e-22
	-2.367017777808267e-22
	-1.849035788876757e-21
 177	8.849999999999987e-09
	1.906012208862950e-22
	-6.050255422220274e-22
	3.408850193713850e-21
	-3.455058312334974e-22
 178	8.899999999999987e-09
	1.264609603817396e-21
	1.183458942045876e-21
	-2.209143534376299e-20
	1.440874584392500e-21
 179	8.949999999999987e-09
	-2.204807282103098e-21
	-1.012427341724538e-21
	1.224090546712499e-21
	-3.394491200391362e-22
 180	8.999999999999988e-09
	5.444582895903611e-22
	1.257524977904500e-21
	-6.046178237797687e-20
	-3.361705847900356e-21
 181	9.049999999999988e-09
	3.096751858896769e-21
	-1.834502239938704e-21
	-2.201131033729542e-21
	-2.611001195555852e-21
 182	9.099999999999989e-09
	1.101359358054234e-21
	1.355067239551593e-21
	-6.169748429893087e-22
	-3.527675994684929e-22
 183	9.149999999999989e-09
	-1.503835920072293e-20
	1.723031863982884e-22
	-1.393468006309243e-21
	-5.665982447995986e-22
 184	9.199999999999990e-09
	3.663541810225282e-20
	-1.915668662311199e-21
	-8.954324057213414e-21
	9.930981809316278e-21
 185	9.249999999999990e-09
	1.719707819198849e-20
	4.312585599999160e-21
	8.555449486447629e-21
	-1.525974935546725e-20
 186	9.299999999999991e-09
	-4.553939170409097e-20
	-2.071625589997832e-21
	3.100430599491323e-21
	-4.066305233047205e-21
 187	9.349999999999991e-09
	3.955979015142914e-22
	-9.592278021181508e-22
	-4.751771702776619e-22
	8.852181527816907e-21
 188	9.399999999999992e-09
	-2.840907179390955e-21
	-1.286206877479293e-22
	2.011839906283697e-22
	1.417441772757033e-21
 189	9.449999999999992e-09
	-7.133713154862760e-21
	1.301546561246484e-21
	-1.204305570780118e-21
	-4.294412099151585e-22
 190	9.499999999999992e-09
	9.861884825705127e-21
	-1.190816945746406e-21
	-5.381055833828584e-22
	-7.817284590314820e-21
 191	9.549999999999993e-09
	-2.536002140432116e-20
	-8.478428890319257e-21
	1.045726437993610e-21
	1.591550969386599e-20
 192	9.599999999999993e-09
	-7.777845156171967e-21
	1.759769598277966e-21
	1.219211924431931e-21
	1.060004040857302e-20
 193	9.649999999999994e-09
	-3.688483015682317e-21
	-6.499474967750588e-22
	8.652892624294722e-22
	-6.607312630015678e-21
 194	9.699999999999994e-09
	-1.128301269404380e-20
	-6.511583669485877e-22
	-3.122522679482197e-22
	-3.650540033200671e-21
 195	9.749999999999995e-09
	1.759653339493185e-22
	6.740818844397640e-22
	-9.315878082731149e-22
	8.792106832893563e-22
 196	9.799999999999995e-09
	-8.960651985860952e-22
	-6.563118248470472e-22
	-2.776214237016810e-21
	-5.505285164682158e-21
 197	9.849999999999996e-09
	1.510747287031209e-20
	1.324725229132112e-21
	-1.167378187043410e-21
	-3.131071107924559e-21
 198	9.899999999999996e-09
	1.715522313022013e-20
	-6.681280843746664e-22
	-7.806685935422656e-21
	-1.796146765856241e-21
 199	9.949999999999996e-09
	1.770346579807940e-20
	1.599280506214408e-21
	3.854233048275417e-21
	-3.182790112302994e-21
 200	9.999999999999997e-09
	-2.704277864434282e-21
	-8.295851433328715e-23
	1.270522590935299e-21
	4.528138636082160e-21
 201	1.005000000000000e-08
	-6.673637840623768e-20
	-1.242248373351570e-21
	-2.054578474186979e-21
	-9.205867157771202e-22
 202	1.010000000000000e-08
	4.175948675860655e-21
	4.513576038853709e-22
	1.258680197543051e-21
	2.939327063867324e-21
 203	1.015000000000000e-08
	-8.692369388524699e-21
	-8.839439377916581e-22
	-7.765743881237043e-22
	-4.091379859948262e-21
 204	1.020000000000000e-08
	2.882140431491779e-20
	5.234275626316633e-21
	9.601147172875807e-22
	-3.345957273814631e-22
 205	1.025000000000000e-08
	-2.451246176846643e-20
	1.761293999164617e-21
	-2.136879953667699e-21
	-1.984129354237103e-20
 206	1.030000000000000e-08
	2.127779418918769e-20
	2.885916636787837e-21
	-1.847269515654572e-21
	-2.371073251463886e-20
 207	1.035000000000000e-08
	-1.645559790527618e-20
	3.255183841547598e-22
	5.343154574307655e-22
	4.333226412166968e-21
 208	1.040000000000000e-08
	7.041550621464909e-22
	-1.024154421761007e-21
	1.791625720778077e-21
	-2.453936040204767e-21
 209	1.045000000000000e-08
	-2.414135715694642e-21
	-7.313738582362156e-22
	-8.234087125896494e-22
	2.901399864066531e-21
 210	1.050000000000000e-08
	9.095168806288695e-21
	-1.385410570850240e-21
	2.667474416276291e-21
	4.724922926958623e-21
 211	1.055000000000000e-08
	-2.435299425761224e-20
	-2.706176282027628e-21
	3.073495370636245e-21
	1.111039543307820e-21
 212	1.060000000000000e-08
	-1.097042410216537e-20
	4.066475961960323e-21
	-1.044616282574611e-20
	3.053775414381042e-21
 213	1.065000000000000e-08
	-2.388439184633952e-20
	-2.736753516471965e-22
	3.535905366766785e-21
	-3.228350886916188e-21
 214	1.070000000000000e-08
	1.047966790342786e-20
	1.695952984806542e-21
	-2.568170179286600e-22
	-7.604507770952252e-22
 215	1.075000000000000e-08
	-5.500321526912320e-20
	5.219781258281011e-22
	-9.849763126169517e-22
	5.567716002933726e-22
 216	1.080000000000000e-08
	-1.037078667252156e-20
	-1.474484291731439e-21
	5.469691127233071e-21
	-3.582292363767579e-22
 217	1.085000000000000e-08
	1.238141763206921e-20
	1.209847347160453e-21
	-3.918113967580213e-21
	-8.347879618763176e-21
 218	1.090000000000000e-08
	-2.645330522803056e-20
	-6.356526732936822e-22
	1.442393720996774e-20
	-2.461667322386950e-21
 219	1.095000000000001e-08
	3.161547981910872e-20
	3.548432557270083e-21
	-1.089123969251774e-20
	9.620479763988307e-21
 220	1.100000000000001e-08
	3.830423021990133e-20
	-3.683176120543394e-21
	-1.332210841600159e-20
	5.998134858862782e-21
 221	1.105000000000001e-08
	-1.430096183082051e-21
	-7.331626964356199e-22
	6.232085761223779e-21
	7.887587959071543e-21
 222	1.110000000000001e-08
	2.028338769321346e-21
	-3.563845970608895e-22
	-3.562973545088411e-21
	-4.582518150496837e-21
 223	1.115000000000001e-08
	1.709703852817611e-20
	8.265702112832442e-22
	-2.914488172912028e-22
	1.705925631341155e-21
 224	1.120000000000001e-08
	-2.079447281809165e-21
	5.476835343120697e-22
	-1.077111741036760e-21
	-1.583948099611190e-21
 225	1.125000000000001e-08
	-2.228847734459650e-21
	1.710082436757995e-22
	2.037420536023713e-21
	-6.816226412221237e-21
 226	1.130000000000001e-08
	3.682179323796828e-21
	-7.826612849558097e-22
	-7.284614861148876e-21
	-7.843344886091373e-22
 227	1.135000000000001e-08
	-2.933916121392829e-21
	-7.826236166011010e-22
	-1.067652183341970e-21
	-4.519696634242240e-21
 228	1.140000000000001e-08
	1.852597238090496e-20
	-4.408589107732243e-22
	1.443205762774128e-21
	1.291547530762614e-21
 229	1.145000000000001e-08
	-2.727920720326233e-20
	1.159367505008139e-21
	6.506339299543022e-21
	-1.440496255284743e-20
 230	1.150000000000001e-08
	-6.447796643629881e-20
	1.301101730369481e-22
	-3.117842840638572e-21
	3.238647548626401e-21
 231	1.155000000000001e-08
	2.705710153282435e-21
	5.030437436576220e-22
	-1.072317412497004e-21
	3.130838053489900e-20
 232	1.160000000000001e-08
	-1.572090056026730e-20
	4.362438694165464e-23
	-1.061580091920895e-21
	5.580849941803967e-22
 233	1.165000000000001e-08
	1.737123333257168e-20
	1.245036524919458e-21
	4.217015126901828e-21
	-1.846289856707566e-21
 234	1.170000000000001e-08
	3.184919356290012e-20
	-8.152574206105378e-22
	5.060690253458795e-21
	-1.883229095652285e-20
 235	1.175000000000001e-08
	4.976113780862144e-21
	2.986989566925524e-21
	-3.783477925268050e-21
	9.311604407517263e-21
 236	1.180000000000001e-08
	5.720509946515517e-21
	-2.448551362716449e-21
	-2.203692936455653e-21
	-5.962406913870668e-21